    1C
    1UUSER                                                              
    1UDATE              25.may.2021                                     
    1UTIME              18:57:33                                        
    1UHOST                                                              
    1UPGM               CalculiX                                        
    1UVERSION           Version 2.17                             
    1UCOMPILETIME       Thu Jul 23 21:43:50 CEST 2020                    
    1UDIR                                                               
    1UDBN                                                               
    1UMAT    1SOLIDMATERIAL                                             
    2C                          1242                                     1
 -1         1 2.30000E+01 2.00000E+01 5.00000E+00
 -1         2 2.30000E+01 2.00000E+01 0.00000E+00
 -1         3 3.00000E+01 2.00000E+01 5.00000E+00
 -1         4 3.00000E+01 2.00000E+01 0.00000E+00
 -1         5 3.00000E+01 0.00000E+00 5.00000E+00
 -1         6 3.00000E+01 0.00000E+00 0.00000E+00
 -1         7 1.00000E+01 0.00000E+00 5.00000E+00
 -1         8 1.00000E+01 0.00000E+00 0.00000E+00
 -1         9 0.00000E+00 0.00000E+00 5.00000E+00
 -1        10 0.00000E+00 0.00000E+00 0.00000E+00
 -1        11 0.00000E+00 1.00000E+01 5.00000E+00
 -1        12 0.00000E+00 1.00000E+01 0.00000E+00
 -1        13 0.00000E+00 3.00000E+01 5.00000E+00
 -1        14 0.00000E+00 3.00000E+01 0.00000E+00
 -1        15 2.00000E+01 3.00000E+01 5.00000E+00
 -1        16 2.00000E+01 3.00000E+01 0.00000E+00
 -1        17 2.00000E+01 2.30000E+01 5.00000E+00
 -1        18 2.00000E+01 2.30000E+01 0.00000E+00
 -1        19 2.00000E+01 2.64160E+01 5.00000E+00
 -1        20 1.74400E+01 3.00000E+01 5.00000E+00
 -1        21 1.43600E+01 3.00000E+01 5.00000E+00
 -1        22 1.08000E+01 3.00000E+01 5.00000E+00
 -1        23 6.50000E+00 3.00000E+01 5.00000E+00
 -1        24 2.70000E+00 3.00000E+01 5.00000E+00
 -1        25 0.00000E+00 2.74800E+01 5.00000E+00
 -1        26 0.00000E+00 2.44400E+01 5.00000E+00
 -1        27 0.00000E+00 2.09400E+01 5.00000E+00
 -1        28 0.00000E+00 1.67000E+01 5.00000E+00
 -1        29 0.00000E+00 1.27600E+01 5.00000E+00
 -1        30 0.00000E+00 7.10000E+00 5.00000E+00
 -1        31 0.00000E+00 3.13000E+00 5.00000E+00
 -1        32 3.11000E+00 0.00000E+00 5.00000E+00
 -1        33 7.09000E+00 0.00000E+00 5.00000E+00
 -1        34 1.28000E+01 0.00000E+00 5.00000E+00
 -1        35 1.64000E+01 0.00000E+00 5.00000E+00
 -1        36 2.07600E+01 0.00000E+00 5.00000E+00
 -1        37 2.43400E+01 0.00000E+00 5.00000E+00
 -1        38 2.74400E+01 0.00000E+00 5.00000E+00
 -1        39 3.00000E+01 2.76000E+00 5.00000E+00
 -1        40 3.00000E+01 6.64000E+00 5.00000E+00
 -1        41 3.00000E+01 1.09000E+01 5.00000E+00
 -1        42 3.00000E+01 1.44200E+01 5.00000E+00
 -1        43 3.00000E+01 1.74800E+01 5.00000E+00
 -1        44 2.77600E+01 2.00000E+01 5.00000E+00
 -1        45 2.52260E+01 2.00000E+01 5.00000E+00
 -1        46 2.08787E+01 2.08787E+01 5.00000E+00
 -1        47 2.00000E+01 2.52610E+01 0.00000E+00
 -1        48 2.00000E+01 2.77810E+01 0.00000E+00
 -1        49 1.71200E+01 3.00000E+01 0.00000E+00
 -1        50 1.35800E+01 3.00000E+01 0.00000E+00
 -1        51 9.40000E+00 3.00000E+01 0.00000E+00
 -1        52 3.94000E+00 3.00000E+01 0.00000E+00
 -1        53 0.00000E+00 2.75600E+01 0.00000E+00
 -1        54 0.00000E+00 2.43600E+01 0.00000E+00
 -1        55 0.00000E+00 2.02600E+01 0.00000E+00
 -1        56 0.00000E+00 1.61600E+01 0.00000E+00
 -1        57 0.00000E+00 1.27400E+01 0.00000E+00
 -1        58 0.00000E+00 7.03000E+00 0.00000E+00
 -1        59 0.00000E+00 3.33000E+00 0.00000E+00
 -1        60 3.30000E+00 0.00000E+00 0.00000E+00
 -1        61 7.02000E+00 0.00000E+00 0.00000E+00
 -1        62 1.26200E+01 0.00000E+00 0.00000E+00
 -1        63 1.57800E+01 0.00000E+00 0.00000E+00
 -1        64 2.05600E+01 0.00000E+00 0.00000E+00
 -1        65 2.45600E+01 0.00000E+00 0.00000E+00
 -1        66 2.76000E+01 0.00000E+00 0.00000E+00
 -1        67 3.00000E+01 3.76000E+00 0.00000E+00
 -1        68 3.00000E+01 9.04000E+00 0.00000E+00
 -1        69 3.00000E+01 1.36400E+01 0.00000E+00
 -1        70 3.00000E+01 1.73400E+01 0.00000E+00
 -1        71 2.64230E+01 2.00000E+01 0.00000E+00
 -1        72 2.08787E+01 2.08787E+01 0.00000E+00
 -1        73 2.00000E+01 2.30000E+01 2.52000E+00
 -1        74 2.30000E+01 2.00000E+01 2.52000E+00
 -1        75 3.00000E+01 2.00000E+01 2.48500E+00
 -1        76 3.00000E+01 0.00000E+00 2.40500E+00
 -1        77 1.00000E+01 0.00000E+00 2.40000E+00
 -1        78 0.00000E+00 0.00000E+00 2.48500E+00
 -1        79 0.00000E+00 1.00000E+01 2.40000E+00
 -1        80 0.00000E+00 3.00000E+01 2.40500E+00
 -1        81 2.00000E+01 3.00000E+01 2.40000E+00
 -1        82 1.76742E+01 2.47080E+01 5.00000E+00
 -1        83 1.75571E+01 2.73540E+01 5.00000E+00
 -1        84 1.44771E+01 2.73540E+01 5.00000E+00
 -1        85 1.09171E+01 2.73540E+01 5.00000E+00
 -1        86 6.61710E+00 2.73540E+01 5.00000E+00
 -1        87 2.73566E+00 2.59600E+01 5.00000E+00
 -1        88 2.73566E+00 2.24600E+01 5.00000E+00
 -1        89 2.73566E+00 1.82200E+01 5.00000E+00
 -1        90 2.73566E+00 1.42800E+01 5.00000E+00
 -1        91 2.73566E+00 1.15200E+01 5.00000E+00
 -1        92 2.73566E+00 8.62000E+00 5.00000E+00
 -1        93 2.73566E+00 4.65000E+00 5.00000E+00
 -1        94 2.92283E+00 2.32500E+00 5.00000E+00
 -1        95 6.90283E+00 2.32500E+00 5.00000E+00
 -1        96 9.81283E+00 2.32500E+00 5.00000E+00
 -1        97 1.26128E+01 2.32500E+00 5.00000E+00
 -1        98 1.62128E+01 2.32500E+00 5.00000E+00
 -1        99 2.25500E+01 3.02099E+00 5.00000E+00
 -1       100 2.56500E+01 3.02099E+00 5.00000E+00
 -1       101 2.64084E+01 8.77000E+00 5.00000E+00
 -1       102 2.64084E+01 1.22900E+01 5.00000E+00
 -1       103 2.64084E+01 1.53500E+01 5.00000E+00
 -1       104 2.64930E+01 1.73889E+01 5.00000E+00
 -1       105 2.42670E+01 1.73889E+01 5.00000E+00
 -1       106 1.82906E+01 2.10493E+01 5.00000E+00
 -1       107 2.12714E+01 1.88269E+01 5.00000E+00
 -1       108 1.86833E+01 1.89975E+01 5.00000E+00
 -1       109 1.85800E+01 4.16230E+00 5.00000E+00
 -1       110 1.45942E+01 2.47080E+01 5.00000E+00
 -1       111 7.46862E+00 1.62500E+01 5.00000E+00
 -1       112 7.46862E+00 2.04900E+01 5.00000E+00
 -1       113 2.80059E+01 5.90606E+00 5.00000E+00
 -1       114 7.04286E+00 2.39220E+01 5.00000E+00
 -1       115 7.46862E+00 1.34900E+01 5.00000E+00
 -1       116 6.32730E+00 6.63500E+00 5.00000E+00
 -1       117 1.12128E+01 5.34599E+00 5.00000E+00
 -1       118 1.48128E+01 5.34599E+00 5.00000E+00
 -1       119 2.23706E+01 1.05300E+01 5.00000E+00
 -1       120 2.17627E+01 1.60112E+01 5.00000E+00
 -1       121 1.52106E+01 2.10493E+01 5.00000E+00
 -1       122 2.40855E+01 1.41506E+01 5.00000E+00
 -1       123 6.32730E+00 9.53500E+00 5.00000E+00
 -1       124 2.44880E+01 6.37429E+00 5.00000E+00
 -1       125 1.56033E+01 1.89975E+01 5.00000E+00
 -1       126 1.11267E+01 2.24856E+01 5.00000E+00
 -1       127 1.91746E+01 1.61818E+01 5.00000E+00
 -1       128 2.00478E+01 1.23906E+01 5.00000E+00
 -1       129 1.30128E+01 8.93763E+00 5.00000E+00
 -1       130 1.65154E+01 9.70342E+00 5.00000E+00
 -1       131 9.34072E+00 9.41799E+00 5.00000E+00
 -1       132 1.11267E+01 1.82456E+01 5.00000E+00
 -1       133 1.60946E+01 1.61818E+01 5.00000E+00
 -1       134 1.11267E+01 1.54856E+01 5.00000E+00
 -1       135 1.37532E+01 1.39443E+01 5.00000E+00
 -1       136 1.48024E+01 1.72677E+01 5.00000E+00
 -1       137 1.76742E+01 2.41305E+01 0.00000E+00
 -1       138 1.76742E+01 2.66505E+01 0.00000E+00
 -1       139 1.53500E+01 2.72643E+01 0.00000E+00
 -1       140 1.11700E+01 2.72643E+01 0.00000E+00
 -1       141 5.71000E+00 2.72643E+01 0.00000E+00
 -1       142 2.85500E+00 2.74122E+01 0.00000E+00
 -1       143 3.59164E+00 2.23100E+01 0.00000E+00
 -1       144 3.59164E+00 1.82100E+01 0.00000E+00
 -1       145 3.59164E+00 1.47900E+01 0.00000E+00
 -1       146 3.59164E+00 1.20500E+01 0.00000E+00
 -1       147 3.59164E+00 9.08000E+00 0.00000E+00
 -1       148 3.59164E+00 5.38000E+00 0.00000E+00
 -1       149 5.16000E+00 3.02099E+00 0.00000E+00
 -1       150 8.14000E+00 3.02099E+00 0.00000E+00
 -1       151 1.07600E+01 3.02099E+00 0.00000E+00
 -1       152 1.39200E+01 3.02099E+00 0.00000E+00
 -1       153 1.87000E+01 3.02099E+00 0.00000E+00
 -1       154 2.27000E+01 3.02099E+00 0.00000E+00
 -1       155 2.57400E+01 3.02099E+00 0.00000E+00
 -1       156 2.78700E+01 3.39049E+00 0.00000E+00
 -1       157 2.58377E+01 1.13400E+01 0.00000E+00
 -1       158 2.58377E+01 1.50400E+01 0.00000E+00
 -1       159 2.47115E+01 1.76742E+01 0.00000E+00
 -1       160 1.82906E+01 2.10493E+01 0.00000E+00
 -1       161 2.12714E+01 1.88269E+01 0.00000E+00
 -1       162 3.59314E+00 3.59063E+00 0.00000E+00
 -1       163 2.29829E+01 1.65011E+01 0.00000E+00
 -1       164 2.52670E+01 6.40000E+00 0.00000E+00
 -1       165 1.86833E+01 1.89975E+01 0.00000E+00
 -1       166 1.53500E+01 2.47443E+01 0.00000E+00
 -1       167 8.44000E+00 2.31020E+01 0.00000E+00
 -1       168 7.75394E+00 1.65000E+01 0.00000E+00
 -1       169 7.75394E+00 1.37600E+01 0.00000E+00
 -1       170 7.75394E+00 1.07900E+01 0.00000E+00
 -1       171 7.75394E+00 7.09000E+00 0.00000E+00
 -1       172 9.45000E+00 5.75664E+00 0.00000E+00
 -1       173 1.26100E+01 5.75664E+00 0.00000E+00
 -1       174 1.73900E+01 5.75664E+00 0.00000E+00
 -1       175 2.13900E+01 5.75664E+00 0.00000E+00
 -1       176 1.59664E+01 2.16631E+01 0.00000E+00
 -1       177 2.02539E+01 1.62855E+01 0.00000E+00
 -1       178 8.32460E+00 2.02600E+01 0.00000E+00
 -1       179 1.63591E+01 1.96114E+01 0.00000E+00
 -1       180 2.17999E+01 1.31900E+01 0.00000E+00
 -1       181 2.09744E+01 9.39884E+00 0.00000E+00
 -1       182 1.24869E+01 1.51300E+01 0.00000E+00
 -1       183 1.69707E+01 1.61949E+01 0.00000E+00
 -1       184 1.24869E+01 1.21600E+01 0.00000E+00
 -1       185 1.50000E+01 1.04896E+01 0.00000E+00
 -1       186 1.94284E+01 1.24943E+01 0.00000E+00
 -1       187 1.01820E+01 8.27332E+00 0.00000E+00
 -1       188 1.28286E+01 1.99949E+01 0.00000E+00
 -1       189 2.64930E+01 2.00000E+01 2.38888E+00
 -1       190 3.00000E+01 1.58800E+01 2.50000E+00
 -1       191 1.27100E+01 0.00000E+00 2.50000E+00
 -1       192 2.75200E+01 0.00000E+00 2.50000E+00
 -1       193 5.16000E+00 0.00000E+00 3.02099E+00
 -1       194 0.00000E+00 5.18000E+00 3.02099E+00
 -1       195 0.00000E+00 2.75200E+01 2.50000E+00
 -1       196 1.57400E+01 3.00000E+01 2.50000E+00
 -1       197 2.00000E+01 2.70985E+01 2.50000E+00
 -1       198 2.00000E+01 2.50492E+01 2.51000E+00
 -1       199 2.28145E+01 1.78014E+01 3.51394E+00
 -1       200 1.83877E+01 2.35373E+01 3.56011E+00
 -1       201 1.62693E+01 2.30739E+01 3.12549E+00
 -1       202 1.78415E+01 2.26824E+01 1.79579E+00
 -1       203 1.76894E+01 2.49994E+01 2.03258E+00
 -1       204 2.05887E+01 1.84023E+01 2.48136E+00
 -1       205 1.66647E+01 2.12423E+01 2.60813E+00
 -1       206 1.45522E+01 2.04631E+01 2.57260E+00
 -1       207 1.81348E+01 1.97918E+01 2.47092E+00
 -1       208 1.66885E+01 1.80460E+01 2.39325E+00
 -1       209 2.46894E+01 1.83779E+01 3.48989E+00
 -1       210 2.43684E+01 1.58750E+01 2.68200E+00
 -1       211 2.15873E+01 1.54991E+01 2.48324E+00
 -1       212 2.37531E+01 1.81289E+01 1.69633E+00
 -1       213 2.71418E+01 1.75194E+01 2.35146E+00
 -1       214 1.78746E+01 4.80197E+00 2.04833E+00
 -1       215 2.20654E+01 6.63526E+00 2.79367E+00
 -1       216 1.76202E+01 7.34741E+00 2.32003E+00
 -1       217 1.98132E+01 6.67377E+00 1.53062E+00
 -1       218 2.01012E+01 8.40823E+00 2.73126E+00
 -1       219 1.93841E+01 6.15463E+00 2.97515E+00
 -1       220 1.92996E+01 7.50959E+00 3.94932E+00
 -1       221 2.06188E+01 4.68058E+00 2.17240E+00
 -1       222 2.00000E+01 2.47080E+01 5.00000E+00
 -1       223 2.00000E+01 2.82080E+01 5.00000E+00
 -1       224 1.87200E+01 3.00000E+01 5.00000E+00
 -1       225 1.59000E+01 3.00000E+01 5.00000E+00
 -1       226 1.25800E+01 3.00000E+01 5.00000E+00
 -1       227 8.65000E+00 3.00000E+01 5.00000E+00
 -1       228 4.60000E+00 3.00000E+01 5.00000E+00
 -1       229 1.35000E+00 3.00000E+01 5.00000E+00
 -1       230 0.00000E+00 2.87400E+01 5.00000E+00
 -1       231 0.00000E+00 2.59600E+01 5.00000E+00
 -1       232 0.00000E+00 2.26900E+01 5.00000E+00
 -1       233 0.00000E+00 1.88200E+01 5.00000E+00
 -1       234 0.00000E+00 1.47300E+01 5.00000E+00
 -1       235 0.00000E+00 1.13800E+01 5.00000E+00
 -1       236 0.00000E+00 8.55000E+00 5.00000E+00
 -1       237 0.00000E+00 5.11500E+00 5.00000E+00
 -1       238 0.00000E+00 1.56500E+00 5.00000E+00
 -1       239 1.55500E+00 0.00000E+00 5.00000E+00
 -1       240 5.10000E+00 0.00000E+00 5.00000E+00
 -1       241 8.54500E+00 0.00000E+00 5.00000E+00
 -1       242 1.14000E+01 0.00000E+00 5.00000E+00
 -1       243 1.46000E+01 0.00000E+00 5.00000E+00
 -1       244 1.85800E+01 0.00000E+00 5.00000E+00
 -1       245 2.25500E+01 0.00000E+00 5.00000E+00
 -1       246 2.58900E+01 0.00000E+00 5.00000E+00
 -1       247 2.87200E+01 0.00000E+00 5.00000E+00
 -1       248 3.00000E+01 1.38000E+00 5.00000E+00
 -1       249 3.00000E+01 4.70000E+00 5.00000E+00
 -1       250 3.00000E+01 8.77000E+00 5.00000E+00
 -1       251 3.00000E+01 1.26600E+01 5.00000E+00
 -1       252 3.00000E+01 1.59500E+01 5.00000E+00
 -1       253 3.00000E+01 1.87400E+01 5.00000E+00
 -1       254 2.88800E+01 2.00000E+01 5.00000E+00
 -1       255 2.64930E+01 2.00000E+01 5.00000E+00
 -1       256 2.41130E+01 2.00000E+01 5.00000E+00
 -1       257 2.02284E+01 2.18519E+01 5.00000E+00
 -1       258 2.18519E+01 2.02284E+01 5.00000E+00
 -1       259 2.00000E+01 2.41305E+01 0.00000E+00
 -1       260 2.00000E+01 2.65210E+01 0.00000E+00
 -1       261 2.00000E+01 2.88905E+01 0.00000E+00
 -1       262 1.85600E+01 3.00000E+01 0.00000E+00
 -1       263 1.53500E+01 3.00000E+01 0.00000E+00
 -1       264 1.14900E+01 3.00000E+01 0.00000E+00
 -1       265 6.67000E+00 3.00000E+01 0.00000E+00
 -1       266 1.97000E+00 3.00000E+01 0.00000E+00
 -1       267 0.00000E+00 2.87800E+01 0.00000E+00
 -1       268 0.00000E+00 2.59600E+01 0.00000E+00
 -1       269 0.00000E+00 2.23100E+01 0.00000E+00
 -1       270 0.00000E+00 1.82100E+01 0.00000E+00
 -1       271 0.00000E+00 1.44500E+01 0.00000E+00
 -1       272 0.00000E+00 1.13700E+01 0.00000E+00
 -1       273 0.00000E+00 8.51500E+00 0.00000E+00
 -1       274 0.00000E+00 5.18000E+00 0.00000E+00
 -1       275 0.00000E+00 1.66500E+00 0.00000E+00
 -1       276 1.65000E+00 0.00000E+00 0.00000E+00
 -1       277 5.16000E+00 0.00000E+00 0.00000E+00
 -1       278 8.51000E+00 0.00000E+00 0.00000E+00
 -1       279 1.13100E+01 0.00000E+00 0.00000E+00
 -1       280 1.42000E+01 0.00000E+00 0.00000E+00
 -1       281 1.81700E+01 0.00000E+00 0.00000E+00
 -1       282 2.25600E+01 0.00000E+00 0.00000E+00
 -1       283 2.60800E+01 0.00000E+00 0.00000E+00
 -1       284 2.88000E+01 0.00000E+00 0.00000E+00
 -1       285 3.00000E+01 1.88000E+00 0.00000E+00
 -1       286 3.00000E+01 6.40000E+00 0.00000E+00
 -1       287 3.00000E+01 1.13400E+01 0.00000E+00
 -1       288 3.00000E+01 1.54900E+01 0.00000E+00
 -1       289 3.00000E+01 1.86700E+01 0.00000E+00
 -1       290 2.82115E+01 2.00000E+01 0.00000E+00
 -1       291 2.47115E+01 2.00000E+01 0.00000E+00
 -1       292 2.02284E+01 2.18519E+01 0.00000E+00
 -1       293 2.18519E+01 2.02284E+01 0.00000E+00
 -1       294 2.00000E+01 2.30000E+01 1.26000E+00
 -1       295 2.00000E+01 2.30000E+01 3.76000E+00
 -1       296 2.30000E+01 2.00000E+01 1.26000E+00
 -1       297 2.30000E+01 2.00000E+01 3.76000E+00
 -1       298 3.00000E+01 2.00000E+01 1.24250E+00
 -1       299 3.00000E+01 2.00000E+01 3.74250E+00
 -1       300 3.00000E+01 0.00000E+00 1.20250E+00
 -1       301 3.00000E+01 0.00000E+00 3.70250E+00
 -1       302 1.00000E+01 0.00000E+00 1.20000E+00
 -1       303 1.00000E+01 0.00000E+00 3.70000E+00
 -1       304 0.00000E+00 0.00000E+00 1.24250E+00
 -1       305 0.00000E+00 0.00000E+00 3.74250E+00
 -1       306 0.00000E+00 1.00000E+01 1.20000E+00
 -1       307 0.00000E+00 1.00000E+01 3.70000E+00
 -1       308 0.00000E+00 3.00000E+01 1.20250E+00
 -1       309 0.00000E+00 3.00000E+01 3.70250E+00
 -1       310 2.00000E+01 3.00000E+01 1.20000E+00
 -1       311 2.00000E+01 3.00000E+01 3.70000E+00
 -1       312 1.88371E+01 2.55620E+01 5.00000E+00
 -1       313 1.88371E+01 2.38540E+01 5.00000E+00
 -1       314 1.87786E+01 2.86770E+01 5.00000E+00
 -1       315 1.87786E+01 2.68850E+01 5.00000E+00
 -1       316 1.76157E+01 2.60310E+01 5.00000E+00
 -1       317 1.74986E+01 2.86770E+01 5.00000E+00
 -1       318 1.44186E+01 2.86770E+01 5.00000E+00
 -1       319 1.59586E+01 2.86770E+01 5.00000E+00
 -1       320 1.60171E+01 2.73540E+01 5.00000E+00
 -1       321 1.08586E+01 2.86770E+01 5.00000E+00
 -1       322 1.26386E+01 2.86770E+01 5.00000E+00
 -1       323 1.26971E+01 2.73540E+01 5.00000E+00
 -1       324 6.55855E+00 2.86770E+01 5.00000E+00
 -1       325 8.70855E+00 2.86770E+01 5.00000E+00
 -1       326 8.76710E+00 2.73540E+01 5.00000E+00
 -1       327 4.65855E+00 2.86770E+01 5.00000E+00
 -1       328 1.35000E+00 2.87400E+01 5.00000E+00
 -1       329 1.36783E+00 2.52000E+01 5.00000E+00
 -1       330 1.36783E+00 2.67200E+01 5.00000E+00
 -1       331 1.36783E+00 2.17000E+01 5.00000E+00
 -1       332 1.36783E+00 2.34500E+01 5.00000E+00
 -1       333 2.73566E+00 2.42100E+01 5.00000E+00
 -1       334 1.36783E+00 1.74600E+01 5.00000E+00
 -1       335 1.36783E+00 1.95800E+01 5.00000E+00
 -1       336 2.73566E+00 2.03400E+01 5.00000E+00
 -1       337 1.36783E+00 1.35200E+01 5.00000E+00
 -1       338 1.36783E+00 1.54900E+01 5.00000E+00
 -1       339 2.73566E+00 1.62500E+01 5.00000E+00
 -1       340 1.36783E+00 1.07600E+01 5.00000E+00
 -1       341 1.36783E+00 1.21400E+01 5.00000E+00
 -1       342 2.73566E+00 1.29000E+01 5.00000E+00
 -1       343 1.36783E+00 7.86000E+00 5.00000E+00
 -1       344 1.36783E+00 9.31000E+00 5.00000E+00
 -1       345 2.73566E+00 1.00700E+01 5.00000E+00
 -1       346 1.36783E+00 3.89000E+00 5.00000E+00
 -1       347 1.36783E+00 5.87500E+00 5.00000E+00
 -1       348 2.73566E+00 6.63500E+00 5.00000E+00
 -1       349 1.46141E+00 1.16250E+00 5.00000E+00
 -1       350 1.46141E+00 2.72750E+00 5.00000E+00
 -1       351 2.82924E+00 3.48750E+00 5.00000E+00
 -1       352 3.01641E+00 1.16250E+00 5.00000E+00
 -1       353 6.99641E+00 1.16250E+00 5.00000E+00
 -1       354 5.00641E+00 1.16250E+00 5.00000E+00
 -1       355 4.91283E+00 2.32500E+00 5.00000E+00
 -1       356 9.90641E+00 1.16250E+00 5.00000E+00
 -1       357 8.45141E+00 1.16250E+00 5.00000E+00
 -1       358 8.35783E+00 2.32500E+00 5.00000E+00
 -1       359 1.27064E+01 1.16250E+00 5.00000E+00
 -1       360 1.13064E+01 1.16250E+00 5.00000E+00
 -1       361 1.12128E+01 2.32500E+00 5.00000E+00
 -1       362 1.63064E+01 1.16250E+00 5.00000E+00
 -1       363 1.45064E+01 1.16250E+00 5.00000E+00
 -1       364 1.44128E+01 2.32500E+00 5.00000E+00
 -1       365 2.34450E+01 1.51049E+00 5.00000E+00
 -1       366 2.16550E+01 1.51049E+00 5.00000E+00
 -1       367 2.65450E+01 1.51049E+00 5.00000E+00
 -1       368 2.49950E+01 1.51049E+00 5.00000E+00
 -1       369 2.41000E+01 3.02099E+00 5.00000E+00
 -1       370 2.87200E+01 1.38000E+00 5.00000E+00
 -1       371 2.82042E+01 9.83500E+00 5.00000E+00
 -1       372 2.82042E+01 7.70500E+00 5.00000E+00
 -1       373 2.82042E+01 1.33550E+01 5.00000E+00
 -1       374 2.82042E+01 1.15950E+01 5.00000E+00
 -1       375 2.64084E+01 1.05300E+01 5.00000E+00
 -1       376 2.82042E+01 1.64150E+01 5.00000E+00
 -1       377 2.82042E+01 1.48850E+01 5.00000E+00
 -1       378 2.64084E+01 1.38200E+01 5.00000E+00
 -1       379 2.88800E+01 1.87400E+01 5.00000E+00
 -1       380 2.58595E+01 1.86944E+01 5.00000E+00
 -1       381 2.71265E+01 1.86944E+01 5.00000E+00
 -1       382 2.36335E+01 1.86944E+01 5.00000E+00
 -1       383 2.47465E+01 1.86944E+01 5.00000E+00
 -1       384 2.53800E+01 1.73889E+01 5.00000E+00
 -1       385 1.91453E+01 2.20246E+01 5.00000E+00
 -1       386 1.95846E+01 2.09640E+01 5.00000E+00
 -1       387 2.10751E+01 1.98528E+01 5.00000E+00
 -1       388 2.21357E+01 1.94134E+01 5.00000E+00
 -1       389 2.71783E+00 2.79800E+01 5.00000E+00
 -1       390 2.78250E+01 2.89049E+00 5.00000E+00
 -1       391 4.67638E+00 2.66570E+01 5.00000E+00
 -1       392 1.97810E+01 1.99381E+01 5.00000E+00
 -1       393 1.99774E+01 1.89122E+01 5.00000E+00
 -1       394 1.84870E+01 2.00234E+01 5.00000E+00
 -1       395 1.96700E+01 2.08115E+00 5.00000E+00
 -1       396 1.74900E+01 2.08115E+00 5.00000E+00
 -1       397 2.82465E+01 1.74344E+01 5.00000E+00
 -1       398 2.27692E+01 1.81079E+01 5.00000E+00
 -1       399 1.79824E+01 2.28786E+01 5.00000E+00
 -1       400 2.05650E+01 3.59164E+00 5.00000E+00
 -1       401 1.60757E+01 2.60310E+01 5.00000E+00
 -1       402 1.61342E+01 2.47080E+01 5.00000E+00
 -1       403 1.45357E+01 2.60310E+01 5.00000E+00
 -1       404 5.10214E+00 1.52650E+01 5.00000E+00
 -1       405 5.10214E+00 1.72350E+01 5.00000E+00
 -1       406 5.10214E+00 1.93550E+01 5.00000E+00
 -1       407 5.10214E+00 2.14750E+01 5.00000E+00
 -1       408 7.46862E+00 1.83700E+01 5.00000E+00
 -1       409 2.90030E+01 4.33303E+00 5.00000E+00
 -1       410 2.68280E+01 4.46352E+00 5.00000E+00
 -1       411 4.88926E+00 2.31910E+01 5.00000E+00
 -1       412 4.88926E+00 2.49410E+01 5.00000E+00
 -1       413 6.82998E+00 2.56380E+01 5.00000E+00
 -1       414 7.25574E+00 2.22060E+01 5.00000E+00
 -1       415 5.10214E+00 1.25050E+01 5.00000E+00
 -1       416 5.10214E+00 1.38850E+01 5.00000E+00
 -1       417 7.46862E+00 1.48700E+01 5.00000E+00
 -1       418 4.53148E+00 5.64250E+00 5.00000E+00
 -1       419 4.53148E+00 7.62750E+00 5.00000E+00
 -1       420 1.19128E+01 3.83549E+00 5.00000E+00
 -1       421 1.05128E+01 3.83549E+00 5.00000E+00
 -1       422 1.55128E+01 3.83549E+00 5.00000E+00
 -1       423 1.37128E+01 3.83549E+00 5.00000E+00
 -1       424 1.30128E+01 5.34599E+00 5.00000E+00
 -1       425 2.64507E+01 1.63694E+01 5.00000E+00
 -1       426 2.72071E+01 7.33803E+00 5.00000E+00
 -1       427 2.90030E+01 6.27303E+00 5.00000E+00
 -1       428 2.43895E+01 1.14100E+01 5.00000E+00
 -1       429 2.43895E+01 9.65000E+00 5.00000E+00
 -1       430 2.15171E+01 1.74190E+01 5.00000E+00
 -1       431 2.30148E+01 1.67000E+01 5.00000E+00
 -1       432 2.53377E+01 1.63694E+01 5.00000E+00
 -1       433 1.64424E+01 2.28786E+01 5.00000E+00
 -1       434 1.67506E+01 2.10493E+01 5.00000E+00
 -1       435 1.49024E+01 2.28786E+01 5.00000E+00
 -1       436 2.24603E+01 6.77549E+00 5.00000E+00
 -1       437 2.04753E+01 7.34615E+00 5.00000E+00
 -1       438 8.97998E+00 2.56380E+01 5.00000E+00
 -1       439 1.27557E+01 2.60310E+01 5.00000E+00
 -1       440 2.41763E+01 1.57697E+01 5.00000E+00
 -1       441 2.52469E+01 1.47503E+01 5.00000E+00
 -1       442 2.52469E+01 1.32203E+01 5.00000E+00
 -1       443 2.29241E+01 1.50809E+01 5.00000E+00
 -1       444 6.32730E+00 8.08500E+00 5.00000E+00
 -1       445 4.53148E+00 9.07750E+00 5.00000E+00
 -1       446 4.53148E+00 1.05275E+01 5.00000E+00
 -1       447 2.62470E+01 6.14018E+00 5.00000E+00
 -1       448 2.50690E+01 4.69764E+00 5.00000E+00
 -1       449 1.69470E+01 2.00234E+01 5.00000E+00
 -1       450 1.71433E+01 1.89975E+01 5.00000E+00
 -1       451 1.54070E+01 2.00234E+01 5.00000E+00
 -1       452 2.32281E+01 1.23403E+01 5.00000E+00
 -1       453 1.10219E+01 2.49198E+01 5.00000E+00
 -1       454 1.28605E+01 2.35968E+01 5.00000E+00
 -1       455 1.31687E+01 2.17675E+01 5.00000E+00
 -1       456 9.08479E+00 2.32038E+01 5.00000E+00
 -1       457 8.77007E+00 5.99049E+00 5.00000E+00
 -1       458 8.07006E+00 4.48000E+00 5.00000E+00
 -1       459 4.81924E+00 3.48750E+00 5.00000E+00
 -1       460 6.61507E+00 4.48000E+00 5.00000E+00
 -1       461 6.89796E+00 1.15125E+01 5.00000E+00
 -1       462 2.54482E+01 7.57215E+00 5.00000E+00
 -1       463 2.35190E+01 4.69764E+00 5.00000E+00
 -1       464 2.02230E+01 1.75043E+01 5.00000E+00
 -1       465 2.04686E+01 1.60965E+01 5.00000E+00
 -1       466 1.89290E+01 1.75896E+01 5.00000E+00
 -1       467 2.34293E+01 8.45215E+00 5.00000E+00
 -1       468 2.20666E+01 1.32706E+01 5.00000E+00
 -1       469 2.12092E+01 1.14603E+01 5.00000E+00
 -1       470 2.09052E+01 1.42009E+01 5.00000E+00
 -1       471 1.39128E+01 7.14181E+00 5.00000E+00
 -1       472 1.21128E+01 7.14181E+00 5.00000E+00
 -1       473 1.94430E+01 1.01167E+01 5.00000E+00
 -1       474 1.75477E+01 6.93286E+00 5.00000E+00
 -1       475 1.73964E+01 3.24365E+00 5.00000E+00
 -1       476 1.66964E+01 4.75414E+00 5.00000E+00
 -1       477 7.83401E+00 8.02650E+00 5.00000E+00
 -1       478 7.83401E+00 9.47650E+00 5.00000E+00
 -1       479 8.40467E+00 1.14540E+01 5.00000E+00
 -1       480 1.02768E+01 7.38199E+00 5.00000E+00
 -1       481 9.29767E+00 2.14878E+01 5.00000E+00
 -1       482 1.56641E+01 7.52470E+00 5.00000E+00
 -1       483 1.47641E+01 9.32053E+00 5.00000E+00
 -1       484 9.29767E+00 1.72478E+01 5.00000E+00
 -1       485 9.29767E+00 1.93678E+01 5.00000E+00
 -1       486 1.11267E+01 2.03656E+01 5.00000E+00
 -1       487 1.58490E+01 1.75896E+01 5.00000E+00
 -1       488 1.73890E+01 1.75896E+01 5.00000E+00
 -1       489 1.76346E+01 1.61818E+01 5.00000E+00
 -1       490 9.29767E+00 1.58678E+01 5.00000E+00
 -1       491 1.11267E+01 1.68656E+01 5.00000E+00
 -1       492 9.29767E+00 1.44878E+01 5.00000E+00
 -1       493 1.96112E+01 1.42862E+01 5.00000E+00
 -1       494 1.51343E+01 1.18238E+01 5.00000E+00
 -1       495 1.33830E+01 1.14409E+01 5.00000E+00
 -1       496 1.02337E+01 1.24518E+01 5.00000E+00
 -1       497 1.11768E+01 9.17781E+00 5.00000E+00
 -1       498 1.82816E+01 1.10470E+01 5.00000E+00
 -1       499 1.31687E+01 1.96475E+01 5.00000E+00
 -1       500 1.69005E+01 1.31674E+01 5.00000E+00
 -1       501 1.15470E+01 1.16811E+01 5.00000E+00
 -1       502 1.64639E+01 1.50630E+01 5.00000E+00
 -1       503 1.29646E+01 1.77567E+01 5.00000E+00
 -1       504 1.50065E+01 1.91585E+01 5.00000E+00
 -1       505 1.24400E+01 1.47150E+01 5.00000E+00
 -1       506 1.29646E+01 1.63767E+01 5.00000E+00
 -1       507 1.42778E+01 1.56060E+01 5.00000E+00
 -1       508 1.49239E+01 1.50630E+01 5.00000E+00
 -1       509 1.54485E+01 1.67247E+01 5.00000E+00
 -1       510 1.52029E+01 1.81326E+01 5.00000E+00
 -1       511 1.88371E+01 2.35653E+01 0.00000E+00
 -1       512 1.88371E+01 2.46957E+01 0.00000E+00
 -1       513 1.88371E+01 2.59557E+01 0.00000E+00
 -1       514 1.88371E+01 2.72157E+01 0.00000E+00
 -1       515 1.76742E+01 2.53905E+01 0.00000E+00
 -1       516 1.85600E+01 2.88905E+01 0.00000E+00
 -1       517 1.62350E+01 2.86322E+01 0.00000E+00
 -1       518 1.44650E+01 2.86322E+01 0.00000E+00
 -1       519 1.23750E+01 2.86322E+01 0.00000E+00
 -1       520 1.02850E+01 2.86322E+01 0.00000E+00
 -1       521 1.32600E+01 2.72643E+01 0.00000E+00
 -1       522 7.55500E+00 2.86322E+01 0.00000E+00
 -1       523 4.82500E+00 2.86322E+01 0.00000E+00
 -1       524 8.44000E+00 2.72643E+01 0.00000E+00
 -1       525 3.39750E+00 2.87061E+01 0.00000E+00
 -1       526 1.42750E+00 2.87061E+01 0.00000E+00
 -1       527 1.42750E+00 2.74861E+01 0.00000E+00
 -1       528 4.28250E+00 2.73383E+01 0.00000E+00
 -1       529 1.42750E+00 2.58861E+01 0.00000E+00
 -1       530 1.79582E+00 2.33350E+01 0.00000E+00
 -1       531 1.79582E+00 2.12850E+01 0.00000E+00
 -1       532 1.79582E+00 1.92350E+01 0.00000E+00
 -1       533 1.79582E+00 1.71850E+01 0.00000E+00
 -1       534 3.59164E+00 2.02600E+01 0.00000E+00
 -1       535 1.79582E+00 1.54750E+01 0.00000E+00
 -1       536 1.79582E+00 1.37650E+01 0.00000E+00
 -1       537 3.59164E+00 1.65000E+01 0.00000E+00
 -1       538 1.79582E+00 1.23950E+01 0.00000E+00
 -1       539 1.79582E+00 1.10250E+01 0.00000E+00
 -1       540 3.59164E+00 1.34200E+01 0.00000E+00
 -1       541 1.79582E+00 9.54000E+00 0.00000E+00
 -1       542 1.79582E+00 8.05500E+00 0.00000E+00
 -1       543 3.59164E+00 1.05650E+01 0.00000E+00
 -1       544 1.79582E+00 6.20500E+00 0.00000E+00
 -1       545 1.79582E+00 4.35500E+00 0.00000E+00
 -1       546 3.59164E+00 7.23000E+00 0.00000E+00
 -1       547 1.65000E+00 1.66500E+00 0.00000E+00
 -1       548 4.23000E+00 1.51049E+00 0.00000E+00
 -1       549 6.09000E+00 1.51049E+00 0.00000E+00
 -1       550 7.58000E+00 1.51049E+00 0.00000E+00
 -1       551 9.07000E+00 1.51049E+00 0.00000E+00
 -1       552 6.65000E+00 3.02099E+00 0.00000E+00
 -1       553 1.03800E+01 1.51049E+00 0.00000E+00
 -1       554 1.16900E+01 1.51049E+00 0.00000E+00
 -1       555 9.45000E+00 3.02099E+00 0.00000E+00
 -1       556 1.32700E+01 1.51049E+00 0.00000E+00
 -1       557 1.48500E+01 1.51049E+00 0.00000E+00
 -1       558 1.23400E+01 3.02099E+00 0.00000E+00
 -1       559 1.72400E+01 1.51049E+00 0.00000E+00
 -1       560 1.96300E+01 1.51049E+00 0.00000E+00
 -1       561 1.63100E+01 3.02099E+00 0.00000E+00
 -1       562 2.16300E+01 1.51049E+00 0.00000E+00
 -1       563 2.36300E+01 1.51049E+00 0.00000E+00
 -1       564 2.07000E+01 3.02099E+00 0.00000E+00
 -1       565 2.51500E+01 1.51049E+00 0.00000E+00
 -1       566 2.66700E+01 1.51049E+00 0.00000E+00
 -1       567 2.42200E+01 3.02099E+00 0.00000E+00
 -1       568 2.77350E+01 1.69525E+00 0.00000E+00
 -1       569 2.89350E+01 1.69525E+00 0.00000E+00
 -1       570 2.89350E+01 3.57525E+00 0.00000E+00
 -1       571 2.68050E+01 3.20574E+00 0.00000E+00
 -1       572 2.79188E+01 1.01900E+01 0.00000E+00
 -1       573 2.79188E+01 1.24900E+01 0.00000E+00
 -1       574 2.79188E+01 1.43400E+01 0.00000E+00
 -1       575 2.79188E+01 1.61900E+01 0.00000E+00
 -1       576 2.58377E+01 1.31900E+01 0.00000E+00
 -1       577 2.82115E+01 1.86700E+01 0.00000E+00
 -1       578 2.55672E+01 1.88371E+01 0.00000E+00
 -1       579 2.38557E+01 1.88371E+01 0.00000E+00
 -1       580 1.95846E+01 2.09640E+01 0.00000E+00
 -1       581 1.91453E+01 2.20246E+01 0.00000E+00
 -1       582 2.21357E+01 1.94134E+01 0.00000E+00
 -1       583 2.10751E+01 1.98528E+01 0.00000E+00